run 5000
Neighbor list info ...
  update every 1 steps, delay 10 steps, check yes
  max neighbors/atom: 2000, page size: 100000
  master list distance cutoff = 4.77118
  ghost atom cutoff = 4.77118
  binsize = 2.38559, bins = 10 10 10
  1 neighbor lists, perpetual/occasional/extra = 1 0 0
  (1) pair sw, perpetual
      attributes: full, newton on
      pair build: full/bin/atomonly
      stencil: full/bin/3d
      bin: standard
Per MPI rank memory allocation (min/avg/max) = 2.958 | 2.958 | 2.958 Mbytes
Step Temp E_pair E_mol TotEng Press 
       0         1525   -2220.3392            0     -2119.61    10466.204 
    5000    1420.1393   -2115.6692            0   -2021.8663    13020.994 
Loop time of 1.89422 on 4 procs for 5000 steps with 512 atoms

Performance: 228.062 ns/day, 0.105 hours/ns, 2639.611 timesteps/s
98.6% CPU use with 4 MPI tasks x 1 OpenMP threads

MPI task timing breakdown:
Section |  min time  |  avg time  |  max time  |%varavg| %total
---------------------------------------------------------------
Pair    | 1.592      | 1.6157     | 1.6338     |   1.2 | 85.29
Neigh   | 0.038198   | 0.038365   | 0.038671   |   0.1 |  2.03
Comm    | 0.19168    | 0.20636    | 0.24034    |   4.3 | 10.89
Output  | 2.0027e-05 | 2.7776e-05 | 5.1022e-05 |   0.0 |  0.00
Modify  | 0.01542    | 0.025759   | 0.036004   |   6.1 |  1.36
Other   |            | 0.008044   |            |       |  0.42

Nlocal:    128 ave 133 max 125 min
Histogram: 1 0 2 0 0 0 0 0 0 1
Nghost:    525 ave 528 max 520 min
Histogram: 1 0 0 0 0 0 0 2 0 1
Neighs:    0 ave 0 max 0 min
Histogram: 4 0 0 0 0 0 0 0 0 0
FullNghs:  3429 ave 3564 max 3332 min
Histogram: 1 0 0 2 0 0 0 0 0 1

Total # of neighbors = 13716
Ave neighs/atom = 26.7891
Neighbor list builds = 196
Dangerous builds = 0


compute myMSD all msd

# Run simulation
thermo          10
thermo_style custom step temp c_myMSD[4] time

dump 1 all custom 10 dump.Si_test_temp id type x y z vx vy vz
run             10000
Per MPI rank memory allocation (min/avg/max) = 4.591 | 4.591 | 4.591 Mbytes
Step Temp c_myMSD[4] Time 
    5000    1420.1393 1.416941e-32            5 
    5010    1422.9696  0.012168553         5.01 
    5020    1381.7689   0.04120958         5.02 
    5030     1525.654  0.072483995         5.03 
    5040    1520.9615  0.099276469         5.04 
    5050    1418.4347   0.12083407         5.05 
    5060    1430.1689   0.14057723         5.06 
    5070    1460.8608   0.16387035         5.07 
    5080    1375.4147   0.18933599         5.08 
    5090    1445.0021   0.20726132         5.09 
    5100     1468.373   0.21275576          5.1 
    5110    1364.4232   0.20674572         5.11 
    5120    1411.7973   0.19326621         5.12 
    5130    1530.0358   0.18061692         5.13 
    5140    1511.6006    0.1733757         5.14 
    5150    1491.1072   0.16648938         5.15 
    5160       1579.5   0.15520495         5.16 
    5170    1507.3134   0.14268063         5.17 
    5180    1466.6773   0.13309423         5.18 
    5190    1458.3431   0.13145545         5.19 
    5200    1382.5219   0.13874865          5.2 
    5210    1392.2322   0.14850635         5.21 
    5220    1400.1653   0.15484695         5.22 
    5230    1406.9092   0.15625239         5.23 
    5240     1422.544   0.15631093         5.24 
    5250    1491.9088   0.15991636         5.25 
    5260     1528.846   0.16938618         5.26 
    5270    1474.6276   0.18122832         5.27 
    5280    1462.8017   0.18824225         5.28 
    5290    1492.3772   0.18810971         5.29 
    5300    1468.0264   0.18512916          5.3 
    5310    1415.5896   0.18418752         5.31 
    5320    1398.7614    0.1861657         5.32 
    5330    1428.7584   0.18781495         5.33 
    5340    1468.3173   0.18472673         5.34 
    5350    1463.1347   0.17453369         5.35 
    5360    1463.7443   0.15880438         5.36 
    5370    1454.8726   0.14273581         5.37 
    5380     1470.463   0.13090552         5.38 
    5390    1486.7513   0.12447691         5.39 
    5400    1507.8874   0.12115467          5.4 
    5410    1493.9231   0.11824337         5.41 
    5420    1470.1423   0.11414656         5.42 
    5430    1447.2872   0.10970668         5.43 
    5440    1472.4219   0.10723248         5.44 
    5450    1471.9041   0.10843339         5.45 
    5460    1416.5343   0.11185144         5.46 
    5470    1442.8041   0.11413293         5.47 
    5480    1469.9235   0.11508754         5.48 
    5490    1503.3442   0.11669517         5.49 
    5500    1519.7666    0.1218208          5.5 
    5510    1432.1475   0.13127438         5.51 
    5520    1396.5513    0.1411094         5.52 
    5530    1437.3958   0.14793115         5.53 
    5540    1458.7328   0.15152273         5.54 
    5550    1454.9286   0.15305564         5.55 
    5560    1428.1455   0.15409413         5.56 
    5570     1419.961   0.15558612         5.57 
    5580     1481.083   0.15738241         5.58 
    5590    1514.0799   0.15923612         5.59 
    5600    1489.7196   0.16009599          5.6 
    5610    1538.0935    0.1592754         5.61 
    5620    1508.4976   0.15929549         5.62 
    5630    1443.7923   0.16107499         5.63 
    5640    1431.0751   0.16321839         5.64 
    5650    1468.0934   0.16461642         5.65 
    5660    1465.1584   0.16462412         5.66 
    5670    1495.8353   0.16199294         5.67 
    5680    1549.7843   0.15825501         5.68 
    5690    1527.9087   0.15693962         5.69 
    5700    1470.5734   0.15912438          5.7 
    5710    1427.4007   0.16318179         5.71 
    5720    1412.0771   0.16687002         5.72 
    5730      1392.64    0.1683916         5.73 
    5740    1426.1104   0.16681781         5.74 
    5750    1413.5328   0.16363785         5.75 
    5760    1420.5412   0.15958794         5.76 
    5770    1435.4853   0.15549374         5.77 
    5780    1437.1079   0.15155849         5.78 
    5790    1497.1348   0.14738909         5.79 
    5800    1544.2957    0.1443732          5.8 
    5810     1554.892   0.14440161         5.81 
    5820    1519.9824    0.1486842         5.82 
    5830    1479.4499   0.15603899         5.83 
    5840     1503.959   0.16390672         5.84 
    5850    1484.4221   0.17105531         5.85 
    5860    1492.8143      0.17612         5.86 
    5870    1438.8381   0.17908453         5.87 
    5880    1453.9789   0.17889939         5.88 
    5890    1546.7916   0.17606103         5.89 
    5900    1472.4463   0.17273722          5.9 
    5910    1440.0228    0.1667335         5.91 
    5920    1466.9686   0.15686723         5.92 
    5930    1414.4923   0.14474475         5.93 
    5940    1433.0698   0.13138773         5.94 
    5950     1505.674   0.11948417         5.95 
    5960    1478.5987   0.11193273         5.96 
    5970     1414.582   0.10738736         5.97 
    5980    1515.1295   0.10299091         5.98 
    5990    1478.0237   0.10036296         5.99 
    6000    1450.3174  0.099247836            6 
    6010    1541.0107   0.10009689         6.01 
    6020    1491.0168   0.10571766         6.02 
    6030    1415.9374   0.11448249         6.03 
    6040      1462.38   0.12280352         6.04 
    6050    1488.6957   0.13006934         6.05 
    6060    1436.4216   0.13630342         6.06 
    6070    1474.9207   0.14045782         6.07 
    6080    1547.2336   0.14421727         6.08 
    6090    1466.1218   0.14964371         6.09 
    6100    1543.1206   0.15463868          6.1 
    6110     1542.484   0.15998215         6.11 
    6120    1445.3965   0.16508483         6.12 
    6130    1432.9657   0.16753955         6.13 
    6140    1496.1561   0.16832229         6.14 
    6150    1440.4297   0.17038486         6.15 
    6160    1459.9585   0.17303061         6.16 
    6170    1473.6462   0.17614645         6.17 
    6180    1448.1654   0.17929878         6.18 
    6190    1501.1441   0.18139715         6.19 
    6200    1507.8466    0.1837455          6.2 
    6210    1442.6845   0.18657256         6.21 
    6220    1482.6478    0.1880202         6.22 
    6230    1522.4237   0.18812865         6.23 
    6240    1465.7001   0.18705409         6.24 
    6250    1498.5185   0.18361519         6.25 
    6260    1508.7335   0.17923847         6.26 
    6270    1434.2578   0.17509677         6.27 
    6280    1436.0446   0.16992801         6.28 
    6290    1489.1441   0.16368913         6.29 
    6300    1467.5715   0.15738889          6.3 
    6310    1445.5842   0.15072105         6.31 
    6320    1531.6359    0.1438847         6.32 
    6330    1486.5101   0.13961919         6.33 
    6340    1474.6338   0.13724255         6.34 
    6350    1587.7766   0.13583954         6.35 
    6360    1604.4605   0.13698273         6.36 
    6370    1471.9458   0.13975548         6.37 
    6380     1455.217   0.14038956         6.38 
    6390    1482.2827   0.13907871         6.39 
    6400    1434.4546   0.13766145          6.4 
    6410    1409.5196    0.1354957         6.41 
    6420     1445.011   0.13178532         6.42 
    6430    1424.1692   0.12712285         6.43 
    6440    1456.1953   0.12109916         6.44 
    6450    1491.8022    0.1149288         6.45 
    6460    1489.7821   0.11056317         6.46 
    6470      1550.45   0.10895733         6.47 
    6480    1554.3319   0.11178227         6.48 
    6490    1492.2466   0.11838393         6.49 
    6500     1478.513   0.12613593          6.5 
    6510    1487.9223   0.13394926         6.51 
    6520    1449.1203   0.14172232         6.52 
    6530    1427.3006   0.14853398         6.53 
    6540    1497.6574   0.15404441         6.54 
    6550    1534.0754   0.15973072         6.55 
    6560    1501.7264   0.16575171         6.56 
    6570    1494.7958   0.17092134         6.57 
    6580     1531.954   0.17525066         6.58 
    6590    1524.7466    0.1800666         6.59 
    6600    1435.6391   0.18496036          6.6 
    6610    1454.5771    0.1873616         6.61 
    6620    1445.1738   0.18729676         6.62 
    6630    1435.4664    0.1849437         6.63 
    6640    1493.9597   0.18094814         6.64 
    6650     1474.269   0.17733065         6.65 
    6660    1451.7777   0.17380512         6.66 
    6670    1499.3402   0.16946264         6.67 
    6680    1514.9833   0.16497181         6.68 
    6690    1468.3392   0.16057221         6.69 
    6700    1521.2497   0.15579284          6.7 
    6710    1541.1546   0.15280415         6.71 
    6720    1472.2127   0.15235107         6.72 
    6730    1496.3908   0.15239411         6.73 
    6740    1541.6576   0.15296774         6.74 
    6750    1481.4001   0.15472116         6.75 
    6760    1444.9661   0.15569614         6.76 
    6770    1485.8263   0.15472187         6.77 
    6780    1500.3561   0.15295142         6.78 
    6790    1448.5612   0.15106396         6.79 
    6800    1514.0978   0.14818748          6.8 
    6810    1540.9313   0.14583014         6.81 
    6820    1431.9807   0.14464606         6.82 
    6830     1461.216   0.14240767         6.83 
    6840    1476.5556   0.14007144         6.84 
    6850    1416.5997   0.13814662         6.85 
    6860    1442.9251   0.13538588         6.86 
    6870    1526.6153   0.13320229         6.87 
    6880     1469.498   0.13370868         6.88 
    6890    1503.9803   0.13533186         6.89 
    6900    1615.8959   0.13850256          6.9 
    6910    1538.9663   0.14491724         6.91 
    6920    1485.8272   0.15159732         6.92 
    6930    1554.5275   0.15679484         6.93 
    6940    1468.4629   0.16225486         6.94 
    6950    1393.2143   0.16621955         6.95 
    6960     1499.185   0.16702012         6.96 
    6970    1502.6897   0.16675346         6.97 
    6980    1410.7039   0.16472698         6.98 
    6990    1522.9382   0.15869909         6.99 
    7000    1556.6639   0.15233095            7 
    7010    1474.6945   0.14802341         7.01 
    7020    1497.5824   0.14483494         7.02 
    7030    1537.3802   0.14355125         7.03 
    7040    1505.1036    0.1444998         7.04 
    7050    1501.1282   0.14621825         7.05 
    7060      1491.01   0.14798882         7.06 
    7070    1449.7224   0.14919858         7.07 
    7080    1487.6796   0.14875605         7.08 
    7090    1509.9382   0.14795534         7.09 
    7100    1446.3766   0.14766021          7.1 
    7110     1469.553   0.14625804         7.11 
    7120    1496.0534   0.14460205         7.12 
    7130    1496.2842   0.14369984         7.13 
    7140    1541.2636   0.14368942         7.14 
    7150    1485.6342   0.14548066         7.15 
    7160    1518.6434   0.14767559         7.16 
    7170    1475.6977   0.15039772         7.17 
    7180    1481.8546   0.15226006         7.18 
    7190    1503.2513   0.15305446         7.19 
    7200    1520.1969   0.15322362          7.2 
    7210     1568.533   0.15321449         7.21 
    7220    1538.5942   0.15421447         7.22 
    7230    1506.6083    0.1560502         7.23 
    7240    1483.4332    0.1587278         7.24 
    7250    1468.2706   0.16229873         7.25 
    7260    1428.1926   0.16640607         7.26 
    7270    1423.7924   0.16933038         7.27 
    7280    1500.1943   0.16980374         7.28 
    7290    1577.8588   0.16895527         7.29 
    7300     1523.796    0.1684445          7.3 
    7310      1494.77   0.16745665         7.31 
    7320    1469.6079    0.1658989         7.32 
    7330     1463.156   0.16367577         7.33 
    7340    1481.0819   0.16059691         7.34 
    7350     1444.933   0.15613222         7.35 
    7360    1488.8539   0.14871705         7.36 
    7370    1528.6123   0.13961674         7.37 
    7380    1510.4286    0.1308418         7.38 
    7390    1503.9807   0.12324397         7.39 
    7400    1532.3711   0.11776111          7.4 
    7410    1505.7827   0.11526659         7.41 
    7420    1513.9188   0.11494411         7.42 
    7430    1576.2193   0.11722356         7.43 
    7440    1554.3186   0.12373762         7.44 
    7450    1532.5436   0.13353847         7.45 
    7460    1514.3068   0.14519656         7.46 
    7470    1453.3412   0.15717336         7.47 
    7480     1440.449   0.16701784         7.48 
    7490    1494.2585   0.17427509         7.49 
    7500    1455.5161   0.18018979          7.5 
    7510    1403.4395   0.18350986         7.51 
    7520     1478.813    0.1827433         7.52 
    7530     1520.028   0.17932605         7.53 
    7540    1480.3411   0.17383276         7.54 
    7550    1502.4506   0.16557808         7.55 
    7560    1525.0578   0.15606264         7.56 
    7570    1494.3767   0.14679512         7.57 
    7580    1551.9236   0.13797767         7.58 
    7590    1577.9222   0.13146081         7.59 
    7600    1524.4394   0.12792172          7.6 
    7610    1486.9992   0.12623479         7.61 
    7620    1517.8445   0.12627113         7.62 
    7630    1477.9253   0.12931711         7.63 
    7640    1465.9098   0.13456466         7.64 
    7650    1516.9782   0.14094784         7.65 
    7660    1518.8932   0.14846408         7.66 
    7670    1447.4382   0.15620346         7.67 
    7680    1506.2541   0.16236559         7.68 
    7690    1530.6915   0.16817292         7.69 
    7700    1499.5876   0.17410966          7.7 
    7710    1541.6075   0.17890791         7.71 
    7720    1540.3957   0.18253905         7.72 
    7730    1475.0862   0.18421015         7.73 
    7740    1460.8675   0.18279709         7.74 
    7750    1470.8727    0.1789525         7.75 
    7760    1443.0958   0.17359761         7.76 
    7770    1432.4356    0.1663416         7.77 
    7780    1513.1844   0.15675571         7.78 
    7790    1545.5905    0.1468144         7.79 
    7800    1480.1735   0.13789314          7.8 
    7810    1516.6347   0.12943401         7.81 
    7820     1593.751   0.12373765         7.82 
    7830    1522.1417   0.12286798         7.83 
    7840    1528.3936   0.12456279         7.84 
    7850    1546.2498   0.12794741         7.85 
    7860    1470.2328   0.13273609         7.86 
    7870    1451.1734   0.13682124         7.87 
    7880    1593.1758     0.140626         7.88 
    7890    1475.9912   0.14787278         7.89 
    7900    1449.8516   0.15528813          7.9 
    7910    1510.3376   0.16080622         7.91 
    7920    1491.6143   0.16485347         7.92 
    7930      1438.13   0.16698684         7.93 
    7940    1547.7683   0.16679983         7.94 
    7950    1554.5425   0.16774775         7.95 
    7960    1455.3376   0.17011289         7.96 
    7970    1557.2582   0.17107384         7.97 
    7980    1542.8775   0.17231176         7.98 
    7990    1461.0396   0.17307368         7.99 
    8000    1498.4817   0.17152545            8 
    8010    1511.8179    0.1692711         8.01 
    8020    1374.3959   0.16681614         8.02 
    8030     1446.453   0.16093711         8.03 
    8040     1533.181   0.15345937         8.04 
    8050    1472.1348   0.14714392         8.05 
    8060    1506.1931   0.14122175         8.06 
    8070    1600.7465   0.13682062         8.07 
    8080    1521.9745    0.1361247         8.08 
    8090    1529.2296   0.13659147         8.09 
    8100     1596.088   0.13728121          8.1 
    8110    1544.9925   0.13940966         8.11 
    8120    1493.5401   0.14226359         8.12 
    8130    1545.4927   0.14522111         8.13 
    8140    1472.7278   0.14914715         8.14 
    8150    1407.0881   0.15124812         8.15 
    8160    1496.2235   0.14941201         8.16 
    8170    1489.8967   0.14592743         8.17 
    8180    1503.4703   0.14179889         8.18 
    8190    1472.4052   0.13852016         8.19 
    8200    1497.2419    0.1366143          8.2 
    8210    1467.9522   0.13674057         8.21 
    8220    1513.8595   0.13771902         8.22 
    8230    1512.5381    0.1398387         8.23 
    8240    1483.9782   0.14287347         8.24 
    8250    1521.7852   0.14635678         8.25 
    8260    1505.7401   0.15143862         8.26 
    8270    1481.6526    0.1574554         8.27 
    8280    1491.7933   0.16273861         8.28 
    8290     1503.621   0.16639973         8.29 
    8300     1556.093   0.16845834          8.3 
    8310    1537.8322   0.17043176         8.31 
    8320    1526.3071   0.17234151         8.32 
    8330    1558.3814   0.17410653         8.33 
    8340    1571.3947   0.17646716         8.34 
    8350    1529.1478   0.17949308         8.35 
    8360    1521.0236   0.18197252         8.36 
    8370    1485.6991   0.18358725         8.37 
    8380    1402.2252    0.1837641         8.38 
    8390     1462.403   0.18079153         8.39 
    8400    1493.2171   0.17591205          8.4 
    8410    1467.2822   0.17001115         8.41 
    8420    1490.3126   0.16293209         8.42 
    8430    1500.8843   0.15578127         8.43 
    8440    1528.1517   0.14939067         8.44 
    8450    1573.5085     0.144755         8.45 
    8460    1508.8291   0.14242469         8.46 
    8470     1520.831   0.14068171         8.47 
    8480    1518.2898   0.13984403         8.48 
    8490    1471.5206   0.13986059         8.49 
    8500    1448.4378    0.1391706          8.5 
    8510    1511.9059   0.13722985         8.51 
    8520    1549.4911   0.13566073         8.52 
    8530    1556.6786   0.13502811         8.53 
    8540    1555.7796   0.13514303         8.54 
    8550    1536.0366   0.13613128         8.55 
    8560    1516.4976   0.13777694         8.56 
    8570    1484.9286   0.14003017         8.57 
    8580     1434.919   0.14249098         8.58 
    8590    1454.2018   0.14401932         8.59 
    8600    1464.6838   0.14456898          8.6 
    8610    1454.0507   0.14378081         8.61 
    8620    1524.2325   0.14127212         8.62 
    8630    1545.9208   0.13910805         8.63 
    8640    1529.0131   0.13851307         8.64 
    8650    1553.4873    0.1395834         8.65 
    8660     1568.417   0.14304744         8.66 
    8670    1526.6597   0.14849844         8.67 
    8680    1524.4794   0.15399618         8.68 
    8690    1484.0756    0.1590463         8.69 
    8700    1418.4528   0.16269238          8.7 
    8710    1466.5206   0.16357933         8.71 
    8720    1528.2211   0.16306799         8.72 
    8730    1510.8998   0.16289225         8.73 
    8740    1498.9688   0.16262495         8.74 
    8750    1540.7398   0.16193547         8.75 
    8760    1517.2589   0.16187041         8.76 
    8770    1574.1913   0.16226035         8.77 
    8780    1579.1336   0.16505351         8.78 
    8790    1451.3022   0.17042968         8.79 
    8800    1468.0298   0.17470485          8.8 
    8810    1502.7384   0.17717295         8.81 
    8820    1543.3557   0.17804162         8.82 
    8830    1523.6999   0.17823881         8.83 
    8840    1509.5438   0.17798042         8.84 
    8850    1519.1462    0.1771945         8.85 
    8860    1510.7057   0.17599705         8.86 
    8870    1495.6112   0.17391857         8.87 
    8880    1476.0072   0.17013394         8.88 
    8890    1481.6191   0.16438498         8.89 
    8900    1468.0306   0.15764456          8.9 
    8910    1519.7128   0.15038158         8.91 
    8920    1492.6162   0.14380169         8.92 
    8930    1510.3988   0.13718411         8.93 
    8940    1546.8052   0.13091561         8.94 
    8950    1525.9569   0.12592715         8.95 
    8960    1511.6719   0.12201391         8.96 
    8970    1563.4723    0.1196656         8.97 
    8980    1539.5214   0.12031999         8.98 
    8990    1517.0385   0.12311325         8.99 
    9000    1484.1427   0.12674027            9 
    9010    1496.2698   0.12983662         9.01 
    9020    1514.7734   0.13277749         9.02 
    9030    1488.8584   0.13645879         9.03 
    9040    1551.8448   0.14028419         9.04 
    9050    1545.7671   0.14534116         9.05 
    9060    1506.8774   0.15104301         9.06 
    9070    1488.0069   0.15574408         9.07 
    9080    1550.5401   0.15904617         9.08 
    9090    1451.9354   0.16279438         9.09 
    9100    1425.3333   0.16533243          9.1 
    9110    1511.1193   0.16593677         9.11 
    9120    1455.6918   0.16587147         9.12 
    9130    1456.1483   0.16334824         9.13 
    9140    1554.6066   0.15836248         9.14 
    9150    1555.4513   0.15394727         9.15 
    9160    1494.4138   0.15121412         9.16 
    9170    1544.9665   0.14947305         9.17 
    9180    1567.0357   0.14970139         9.18 
    9190    1556.9433   0.15152857         9.19 
    9200    1602.4521   0.15399757          9.2 
    9210    1530.6382   0.15763495         9.21 
    9220    1449.8531   0.16073177         9.22 
    9230    1482.2807   0.16162468         9.23 
    9240    1532.5175   0.16155806         9.24 
    9250    1447.3599   0.16180172         9.25 
    9260    1492.9557   0.16025052         9.26 
    9270    1538.2859   0.15794416         9.27 
    9280    1509.4853   0.15687172         9.28 
    9290    1527.6076   0.15726845         9.29 
    9300    1549.1789    0.1596545          9.3 
    9310    1512.8346   0.16366151         9.31 
    9320    1442.1188   0.16694885         9.32 
    9330    1498.1074   0.16707836         9.33 
    9340    1538.8165   0.16583444         9.34 
    9350    1467.5883   0.16534531         9.35 
    9360    1482.4242   0.16485724         9.36 
    9370    1549.1237   0.16447048         9.37 
    9380    1533.5629    0.1647681         9.38 
    9390    1547.7679   0.16463174         9.39 
    9400    1572.6151   0.16406137          9.4 
    9410    1510.2707    0.1638706         9.41 
    9420    1475.9416   0.16267605         9.42 
    9430    1576.3226   0.15962366         9.43 
    9440    1572.6174   0.15718966         9.44 
    9450      1443.04   0.15505847         9.45 
    9460    1509.2179   0.15042732         9.46 
    9470    1480.4909   0.14554482         9.47 
    9480    1458.5328   0.14080568         9.48 
    9490    1540.1928   0.13559017         9.49 
    9500    1577.0765   0.13115132          9.5 
    9510    1489.9331   0.12771183         9.51 
    9520    1536.7637    0.1235718         9.52 
    9530    1583.9498   0.12086595         9.53 
    9540    1495.5496   0.12181784         9.54 
    9550    1467.2477   0.12501287         9.55 
    9560    1486.0606   0.12934135         9.56 
    9570    1434.7693   0.13396048         9.57 
    9580    1503.3136   0.13648998         9.58 
    9590    1540.0672   0.13827894         9.59 
    9600    1494.4967   0.14082062          9.6 
    9610    1531.0043   0.14349491         9.61 
    9620    1554.1582   0.14675654         9.62 
    9630    1509.8015   0.15057082         9.63 
    9640    1511.5456   0.15376641         9.64 
    9650    1533.4112   0.15644904         9.65 
    9660    1487.4376   0.15943352         9.66 
    9670    1545.5431   0.16199181         9.67 
    9680    1575.1688   0.16524159         9.68 
    9690    1548.5861   0.16972278         9.69 
    9700    1512.1848   0.17451894          9.7 
    9710     1519.292   0.17815273         9.71 
    9720    1504.2156   0.18047605         9.72 
    9730    1498.5749   0.18143928         9.73 
    9740    1500.1629   0.18127215         9.74 
    9750     1487.857   0.18051168         9.75 
    9760    1524.1085   0.17935549         9.76 
    9770    1521.9425      0.17874         9.77 
    9780    1465.3019   0.17851874         9.78 
    9790    1486.5408   0.17740604         9.79 
    9800    1535.5812   0.17601727          9.8 
    9810      1472.23   0.17531184         9.81 
    9820    1455.1501   0.17325102         9.82 
    9830    1525.2206   0.16938878         9.83 
    9840     1495.311   0.16553687         9.84 
    9850    1538.2653   0.16086706         9.85 
    9860     1548.028   0.15585342         9.86 
    9870    1581.3038   0.15083776         9.87 
    9880    1590.9192   0.14678501         9.88 
    9890    1558.0913   0.14395824         9.89 
    9900    1558.8558   0.14130543          9.9 
    9910     1537.424   0.13883024         9.91 
    9920    1459.6288   0.13624534         9.92 
    9930    1466.4735    0.1323417         9.93 
    9940    1494.8742   0.12815054         9.94 
    9950     1493.388   0.12476465         9.95 
    9960    1479.6674   0.12219616         9.96 
    9970    1501.8988   0.12016381         9.97 
    9980     1556.392   0.11920736         9.98 
    9990    1548.7056   0.12068674         9.99 
   10000    1486.8779   0.12397859           10 
   10010    1510.9938   0.12703192        10.01 
   10020    1507.6311   0.13009236        10.02 
   10030    1493.3242   0.13339633        10.03 
   10040    1455.4018   0.13678105        10.04 
   10050    1502.0635   0.13939438        10.05 
   10060    1576.0457   0.14226774        10.06 
   10070    1511.2075   0.14671138        10.07 
   10080    1501.7099   0.15059383        10.08 
   10090    1551.1043   0.15323971        10.09 
   10100    1600.8441   0.15596916         10.1 
   10110    1555.8037   0.16008322        10.11 
   10120    1497.7609   0.16470134        10.12 
   10130    1534.1244   0.16869958        10.13 
   10140    1554.2883   0.17325358        10.14 
   10150    1494.7738   0.17890689        10.15 
   10160    1469.2713   0.18392014        10.16 
   10170      1547.59   0.18705063        10.17 
   10180    1515.4361   0.18938775        10.18 
   10190    1457.4584   0.18994396        10.19 
   10200    1529.0532    0.1877856         10.2 
   10210     1529.807   0.18541643        10.21 
   10220    1431.9037   0.18349189        10.22 
   10230    1490.7514   0.17959084        10.23 
   10240    1563.3492   0.17461279        10.24 
   10250    1505.5644   0.17028078        10.25 
   10260    1552.1167    0.1656966        10.26 
   10270    1558.9196   0.16215743        10.27 
   10280    1533.2685   0.15973071        10.28 
   10290    1538.6761   0.15698316        10.29 
   10300    1499.2142   0.15314032         10.3 
   10310    1485.8845   0.14762518        10.31 
   10320    1520.2081   0.14130092        10.32 
   10330    1532.0496   0.13626786        10.33 
   10340    1498.4289    0.1336103        10.34 
   10350    1539.1592   0.13231158        10.35 
   10360    1506.5055   0.13202489        10.36 
   10370    1502.2631   0.13103992        10.37 
   10380    1576.3474   0.12949579        10.38 
   10390     1592.479   0.13021346        10.39 
   10400    1535.6505   0.13420993         10.4 
   10410    1537.0162   0.13976936        10.41 
   10420    1552.9911   0.14576809        10.42 
   10430    1452.2638   0.15120613        10.43 
   10440    1424.5157   0.15323836        10.44 
   10450    1453.5128   0.15177598        10.45 
   10460    1535.1746   0.14908374        10.46 
   10470    1494.7849   0.14792134        10.47 
   10480    1507.6797   0.14711932        10.48 
   10490    1580.2673    0.1462412        10.49 
   10500    1490.7554    0.1465875         10.5 
   10510    1467.0811   0.14608436        10.51 
   10520    1559.3639   0.14485157        10.52 
   10530    1591.6181   0.14571034        10.53 
   10540    1481.5729   0.14869309        10.54 
   10550    1478.2803   0.14995018        10.55 
   10560    1551.2173   0.14878209        10.56 
   10570    1568.0384   0.14740919        10.57 
   10580    1556.1337   0.14727011        10.58 
   10590    1512.8571   0.14882137        10.59 
   10600    1525.7904   0.15087482         10.6 
   10610    1557.7403   0.15311627        10.61 
   10620    1510.1451   0.15607223        10.62 
   10630    1518.9399   0.15897262        10.63 
   10640    1521.4307   0.16229096        10.64 
   10650    1506.3656   0.16621817        10.65 
   10660     1489.752   0.16984075        10.66 
   10670    1502.9774   0.17215609        10.67 
   10680    1488.1691   0.17309618        10.68 
   10690    1496.1349   0.17277186        10.69 
   10700    1519.1153   0.17211597         10.7 
   10710    1529.5309    0.1719109        10.71 
   10720    1497.0281   0.17177138        10.72 
   10730    1487.8848   0.17019574        10.73 
   10740    1519.5994   0.16642227        10.74 
   10750    1544.8863    0.1615004        10.75 
   10760    1562.5553   0.15687042        10.76 
   10770    1544.1885   0.15349821        10.77 
   10780    1550.8474   0.15132431        10.78 
   10790    1595.5678   0.15097573        10.79 
   10800    1517.3023   0.15338069         10.8 
   10810    1460.3586   0.15598176        10.81 
   10820    1522.1021   0.15726003        10.82 
   10830    1494.9695   0.15849762        10.83 
   10840    1475.7198   0.15839908        10.84 
   10850     1555.208   0.15634072        10.85 
   10860    1563.2546   0.15450133        10.86 
   10870     1517.874   0.15343057        10.87 
   10880    1510.5568   0.15237374        10.88 
   10890    1526.5319   0.15148282        10.89 
   10900    1520.5077    0.1508862         10.9 
   10910    1497.4672   0.14995587        10.91 
   10920    1463.3839   0.14798623        10.92 
   10930    1524.7665     0.144386        10.93 
   10940    1539.7956   0.14080085        10.94 
   10950    1523.2741   0.13763164        10.95 
   10960    1519.9308   0.13422247        10.96 
   10970    1502.5305   0.13090282        10.97 
   10980    1510.2151   0.12798115        10.98 
   10990    1569.8603   0.12636258        10.99 
   11000    1542.1063    0.1273052           11 
   11010    1514.8837   0.12942872        11.01 
   11020    1560.7736   0.13131889        11.02 
   11030    1553.0948    0.1336974        11.03 
   11040    1508.0006   0.13651968        11.04 
   11050    1541.6069   0.13936795        11.05 
   11060    1506.9805   0.14357516        11.06 
   11070    1509.0176   0.14825202        11.07 
   11080    1496.7314   0.15267615        11.08 
   11090    1493.4162   0.15617377        11.09 
   11100    1542.4481   0.15925028         11.1 
   11110    1565.9364   0.16369009        11.11 
   11120     1502.524    0.1697237        11.12 
   11130      1495.49   0.17493734        11.13 
   11140    1578.6488   0.17820475        11.14 
   11150    1500.9995   0.18097313        11.15 
   11160    1444.3558   0.18163082        11.16 
   11170    1517.9007   0.17954219        11.17 
   11180    1536.4646   0.17728858        11.18 
   11190    1514.9827     0.175312        11.19 
   11200    1533.2535   0.17253709         11.2 
   11210     1566.785   0.16917794        11.21 
   11220    1519.8476   0.16640652        11.22 
   11230    1527.4458   0.16342755        11.23 
   11240    1536.8979   0.16026191        11.24 
   11250    1484.6382   0.15709774        11.25 
   11260    1545.4973    0.1527926        11.26 
   11270    1558.2614     0.148842        11.27 
   11280    1515.6888   0.14597424        11.28 
   11290    1477.7545   0.14337402        11.29 
   11300    1530.3327   0.14066329         11.3 
   11310    1544.8027   0.13955455        11.31 
   11320    1535.7296   0.13989446        11.32 
   11330    1520.3116    0.1402531        11.33 
   11340    1498.4123   0.14007837        11.34 
   11350    1510.6819   0.13911683        11.35 
   11360    1525.2848   0.13800152        11.36 
   11370    1439.6646   0.13711421        11.37 
   11380    1494.0612   0.13436347        11.38 
   11390    1585.5872   0.13084952        11.39 
   11400    1560.3532   0.12902462         11.4 
   11410    1510.4233   0.12849179        11.41 
   11420    1544.8814   0.12827093        11.42 
   11430    1573.3932   0.12961309        11.43 
   11440    1493.5593   0.13322037        11.44 
   11450    1477.5277   0.13680544        11.45 
   11460    1512.3823   0.13943869        11.46 
   11470     1554.368    0.1421681        11.47 
   11480    1532.7664   0.14625706        11.48 
   11490    1538.3809   0.15124633        11.49 
   11500    1565.6886   0.15694347         11.5 
   11510    1524.2085   0.16348596        11.51 
   11520    1476.4283   0.16903971        11.52 
   11530     1546.455   0.17232954        11.53 
   11540    1515.9064   0.17532715        11.54 
   11550    1477.2335   0.17748474        11.55 
   11560    1521.4052   0.17789077        11.56 
   11570    1490.7606   0.17761824        11.57 
   11580    1469.6599   0.17599534        11.58 
   11590    1494.4011   0.17265311        11.59 
   11600    1506.6391   0.16853339         11.6 
   11610    1509.1782    0.1645113        11.61 
   11620    1590.1905   0.16132496        11.62 
   11630    1600.9223   0.16045909        11.63 
   11640    1524.0472   0.16082651        11.64 
   11650    1490.2329     0.159759        11.65 
   11660    1486.4454   0.15676349        11.66 
   11670     1584.181   0.15286085        11.67 
   11680    1556.3545   0.15154192        11.68 
   11690    1448.3971   0.15228015        11.69 
   11700    1500.6675   0.15168567         11.7 
   11710    1575.5955   0.15015067        11.71 
   11720    1593.2484   0.14932718        11.72 
   11730    1544.7521   0.15004101        11.73 
   11740    1487.1628   0.15090499        11.74 
   11750    1485.6396   0.14988785        11.75 
   11760    1511.0226   0.14699389        11.76 
   11770     1500.624   0.14354494        11.77 
   11780    1531.1292   0.14018868        11.78 
   11790    1516.4964   0.13861944        11.79 
   11800    1494.7225   0.13920124         11.8 
   11810    1536.8659   0.14107814        11.81 
   11820    1527.0741   0.14445447        11.82 
   11830    1468.2102   0.14809889        11.83 
   11840    1480.9832   0.14993389        11.84 
   11850    1524.5099   0.15056463        11.85 
   11860     1511.152    0.1514988        11.86 
   11870    1571.6292   0.15272452        11.87 
   11880    1600.9849   0.15527062        11.88 
   11890    1596.4209   0.15929401        11.89 
   11900    1545.6766   0.16378323         11.9 
   11910    1501.8165   0.16709169        11.91 
   11920    1478.6517   0.16834533        11.92 
   11930    1521.3138   0.16779212        11.93 
   11940    1484.3286   0.16700483        11.94 
   11950     1407.915    0.1648367        11.95 
   11960    1579.9818   0.15936874        11.96 
   11970    1620.2961   0.15517555        11.97 
   11980    1506.3511   0.15367875        11.98 
   11990    1556.7183   0.15218291        11.99 
   12000    1556.9813   0.15216118           12 
   12010    1456.4251   0.15396234        12.01 
   12020    1451.0577   0.15484214        12.02 
   12030    1478.7357   0.15425135        12.03 
   12040    1449.9234   0.15263287        12.04 
   12050    1489.4615   0.14932612        12.05 
   12060    1583.0092   0.14557615        12.06 
   12070     1624.588   0.14410858        12.07 
   12080    1567.9497   0.14610977        12.08 
   12090    1481.6144   0.14984634        12.09 
   12100    1465.2922   0.15263475         12.1 
   12110    1511.7307   0.15391343        12.11 
   12120    1534.3148   0.15483431        12.12 
   12130     1482.256   0.15528889        12.13 
   12140    1561.1372   0.15356547        12.14 
   12150      1638.83   0.15170645        12.15 
   12160     1564.567   0.15189296        12.16 
   12170    1538.7609   0.15270226        12.17 
   12180    1502.5642   0.15404929        12.18 
   12190    1433.8465   0.15546211        12.19 
   12200    1441.1401   0.15518959         12.2 
   12210    1538.0465   0.15348044        12.21 
   12220     1560.279   0.15271188        12.22 
   12230    1507.7336   0.15329908        12.23 
   12240    1525.4839   0.15395992        12.24 
   12250    1581.5506   0.15577558        12.25 
   12260    1486.5304   0.16033097        12.26 
   12270    1480.3603   0.16497686        12.27 
   12280    1501.0451   0.16877764        12.28 
   12290     1460.191   0.17133006        12.29 
   12300    1500.1235   0.17082408         12.3 
   12310    1576.5895   0.16810907        12.31 
   12320    1544.8335   0.16502517        12.32 
   12330     1544.936   0.16080935        12.33 
   12340    1577.1246   0.15572037        12.34 
   12350     1564.975   0.15130561        12.35 
   12360     1506.384   0.14788762        12.36 
   12370     1484.077   0.14470551        12.37 
   12380    1495.0037   0.14183745        12.38 
   12390    1589.1569    0.1398682        12.39 
   12400    1658.1308   0.14119591         12.4 
   12410    1534.4688   0.14685611        12.41 
   12420    1471.2019   0.15277738        12.42 
   12430    1525.2939   0.15675533        12.43 
   12440    1441.1291   0.16034141        12.44 
   12450    1383.0349   0.16199498        12.45 
   12460    1498.0161   0.16021283        12.46 
   12470    1604.2588   0.15779806        12.47 
   12480    1513.3486   0.15723051        12.48 
   12490    1478.2933   0.15590193        12.49 
   12500    1562.8243   0.15279469         12.5 
   12510    1519.9338   0.15043357        12.51 
   12520    1454.4841   0.14826705        12.52 
   12530    1523.4144   0.14472761        12.53 
   12540    1567.4538   0.14160012        12.54 
   12550    1526.1888   0.13993496        12.55 
   12560    1543.8301    0.1386957        12.56 
   12570    1510.6099   0.13839466        12.57 
   12580    1557.8286   0.13893288        12.58 
   12590      1539.37    0.1416166        12.59 
   12600    1481.7454   0.14566188         12.6 
   12610    1507.2726   0.14885669        12.61 
   12620    1553.3382   0.15131741        12.62 
   12630     1581.568   0.15453719        12.63 
   12640    1537.1508   0.15922272        12.64 
   12650    1549.3173   0.16385051        12.65 
   12660    1529.2622   0.16808383        12.66 
   12670    1486.6529   0.17115659        12.67 
   12680    1465.2616   0.17190928        12.68 
   12690    1513.0471   0.17038058        12.69 
   12700    1475.3483   0.16775972         12.7 
   12710    1468.2296    0.1627534        12.71 
   12720    1544.6371   0.15495506        12.72 
   12730    1559.3595   0.14677044        12.73 
   12740    1538.8117    0.1396603        12.74 
   12750    1578.1687   0.13412733        12.75 
   12760    1614.2037    0.1318651        12.76 
   12770    1473.7499   0.13365017        12.77 
   12780    1433.2633   0.13544591        12.78 
   12790    1493.0165   0.13578437        12.79 
   12800    1483.1183   0.13648462         12.8 
   12810    1505.2781     0.138025        12.81 
   12820    1601.3461   0.14127331        12.82 
   12830    1593.5379   0.14791517        12.83 
   12840    1561.1577   0.15676501        12.84 
   12850    1524.8522   0.16583063        12.85 
   12860    1509.4411    0.1734715        12.86 
   12870    1524.9701   0.17947007        12.87 
   12880    1555.6501   0.18485736        12.88 
   12890    1456.3769   0.18995357        12.89 
   12900    1383.8259   0.19111614         12.9 
   12910    1539.6149   0.18607932        12.91 
   12920    1558.8115   0.17886046        12.92 
   12930    1532.9561   0.17117734        12.93 
   12940    1560.6122   0.16354137        12.94 
   12950    1591.9029   0.15731891        12.95 
   12960    1555.8134   0.15300889        12.96 
   12970    1511.9749   0.14915622        12.97 
   12980    1505.8918   0.14484906        12.98 
   12990    1512.7824   0.14099886        12.99 
   13000    1485.2495   0.13836365           13 
   13010    1471.3631   0.13587999        13.01 
   13020    1523.6307   0.13246134        13.02 
   13030    1503.7949   0.12910149        13.03 
   13040    1470.6919   0.12532636        13.04 
   13050    1619.7413   0.12124167        13.05 
   13060    1615.7832   0.12150255        13.06 
   13070    1530.2265   0.12623145        13.07 
   13080    1516.7998   0.13189742        13.08 
   13090    1530.8584   0.13678118        13.09 
   13100    1468.8583    0.1410269         13.1 
   13110    1490.9963   0.14379056        13.11 
   13120    1571.4223   0.14601338        13.12 
   13130    1524.3728   0.14980917        13.13 
   13140    1496.6746   0.15361777        13.14 
   13150    1536.3354   0.15567142        13.15 
   13160    1510.8617   0.15640583        13.16 
   13170    1480.6951   0.15576276        13.17 
   13180     1503.989   0.15392588        13.18 
   13190    1501.9732   0.15212675        13.19 
   13200    1570.7487   0.15037801         13.2 
   13210    1577.7676   0.14953804        13.21 
   13220    1562.6902   0.14979899        13.22 
   13230    1540.8358   0.15145063        13.23 
   13240    1530.7383   0.15445499        13.24 
   13250    1519.7956   0.15895417        13.25 
   13260    1438.3738   0.16433834        13.26 
   13270    1515.9463   0.16758952        13.27 
   13280    1575.2749   0.16988317        13.28 
   13290    1493.9684    0.1729103        13.29 
   13300    1523.5397   0.17492845         13.3 
   13310    1561.2572    0.1763293        13.31 
   13320    1533.9976   0.17777932        13.32 
   13330    1490.6086   0.17816487        13.33 
   13340    1551.5008   0.17689834        13.34 
   13350    1558.2745   0.17640543        13.35 
   13360    1463.6254   0.17715731        13.36 
   13370    1455.0924   0.17623623        13.37 
   13380    1557.9245   0.17290103        13.38 
   13390    1494.6534   0.16914271        13.39 
   13400    1493.0736   0.16381068         13.4 
   13410    1537.4105    0.1579957        13.41 
   13420    1547.0572   0.15372989        13.42 
   13430     1536.312   0.15097845        13.43 
   13440    1551.2306   0.14878723        13.44 
   13450     1528.466   0.14653062        13.45 
   13460     1528.262   0.14291373        13.46 
   13470    1551.5605   0.13847375        13.47 
   13480    1496.2009   0.13476541        13.48 
   13490    1505.8044   0.13072085        13.49 
   13500     1586.047   0.12637069         13.5 
   13510    1527.9279   0.12357772        13.51 
   13520    1448.5397   0.12086458        13.52 
   13530     1556.653   0.11695929        13.53 
   13540    1558.1026   0.11525274        13.54 
   13550      1522.82   0.11654979        13.55 
   13560    1514.2348    0.1200989        13.56 
   13570    1507.0362    0.1253212        13.57 
   13580    1441.5141   0.13130928        13.58 
   13590    1473.9782    0.1361584        13.59 
   13600    1566.1548   0.14046974         13.6 
   13610    1548.9816   0.14605821        13.61 
   13620    1535.5515   0.15199746        13.62 
   13630    1567.1019   0.15759961        13.63 
   13640    1537.5651    0.1634032        13.64 
   13650    1451.7804    0.1684605        13.65 
   13660    1508.4906    0.1710656        13.66 
   13670    1504.1048   0.17251544        13.67 
   13680    1533.1288   0.17270912        13.68 
   13690    1600.6454   0.17209926        13.69 
   13700    1577.5985   0.17220123         13.7 
   13710    1560.7886   0.17283873        13.71 
   13720    1499.8043   0.17380356        13.72 
   13730    1487.8688   0.17368586        13.73 
   13740    1490.5575    0.1724989        13.74 
   13750    1467.1698    0.1706865        13.75 
   13760    1526.6559   0.16783705        13.76 
   13770    1562.5584   0.16510119        13.77 
   13780    1501.8223   0.16280994        13.78 
   13790    1544.7367   0.15942093        13.79 
   13800    1626.0479   0.15649343         13.8 
   13810    1488.2175   0.15596756        13.81 
   13820    1493.1653   0.15472791        13.82 
   13830    1570.7321   0.15337749        13.83 
   13840    1501.1967   0.15387507        13.84 
   13850    1453.7212   0.15418338        13.85 
   13860    1526.3651   0.15305686        13.86 
   13870     1523.639   0.15219864        13.87 
   13880    1469.5868   0.15133633        13.88 
   13890    1585.2863   0.14919499        13.89 
   13900    1538.9636    0.1485533         13.9 
   13910    1452.5045   0.14792514        13.91 
   13920    1574.0578   0.14483787        13.92 
   13930    1591.0044   0.14277374        13.93 
   13940    1473.1686   0.14275403        13.94 
   13950    1558.4656   0.14212688        13.95 
   13960    1628.6501   0.14288028        13.96 
   13970    1467.4597   0.14599699        13.97 
   13980    1493.3974   0.14705866        13.98 
   13990    1563.2545    0.1468561        13.99 
   14000    1468.3306   0.14740633           14 
   14010    1484.6577   0.14631708        14.01 
   14020    1563.4116   0.14412107        14.02 
   14030    1503.5051   0.14293936        14.03 
   14040    1505.8005     0.141123        14.04 
   14050    1586.0599   0.13911192        14.05 
   14060    1509.6328   0.13953057        14.06 
   14070    1490.9817   0.14066905        14.07 
   14080    1511.4851   0.14161072        14.08 
   14090    1489.3817    0.1427422        14.09 
   14100    1488.0019    0.1436359         14.1 
   14110    1510.8909   0.14434556        14.11 
   14120     1538.747   0.14552331        14.12 
   14130    1524.3866   0.14762483        14.13 
   14140    1557.6147   0.15016232        14.14 
   14150    1544.2164   0.15336657        14.15 
   14160    1549.6411    0.1562842        14.16 
   14170    1553.7902   0.15872823        14.17 
   14180    1562.7556   0.16104026        14.18 
   14190    1574.9843   0.16367881        14.19 
   14200    1499.2925   0.16728701         14.2 
   14210    1470.2337   0.17037612        14.21 
   14220    1521.3278   0.17224482        14.22 
   14230    1459.8665   0.17390957        14.23 
   14240    1449.6861   0.17412822        14.24 
   14250    1527.4227   0.17263422        14.25 
   14260    1506.1985   0.17104764        14.26 
   14270    1501.3095   0.16875189        14.27 
   14280    1583.8964   0.16536659        14.28 
   14290    1595.3279    0.1629891        14.29 
   14300     1520.392   0.16269876         14.3 
   14310    1499.7831   0.16311422        14.31 
   14320    1519.4099   0.16319547        14.32 
   14330    1512.2776   0.16273092        14.33 
   14340    1487.7959   0.16093363        14.34 
   14350    1496.5683   0.15710451        14.35 
   14360    1517.5431   0.15191034        14.36 
   14370    1569.7477   0.14684989        14.37 
   14380    1570.5446   0.14401282        14.38 
   14390    1548.1216   0.14331638        14.39 
   14400    1579.1148   0.14376698         14.4 
   14410      1547.19   0.14549994        14.41 
   14420    1501.9228   0.14770356        14.42 
   14430    1473.8883   0.14925636        14.43 
   14440    1505.9086   0.14894667        14.44 
   14450     1484.999   0.14710702        14.45 
   14460    1519.2053   0.14331833        14.46 
   14470    1600.2571   0.13864373        14.47 
   14480    1503.9204   0.13533065        14.48 
   14490    1489.8096   0.13214181        14.49 
   14500    1525.9354   0.12959659         14.5 
   14510    1461.2858   0.12883103        14.51 
   14520    1472.4767   0.12803254        14.52 
   14530    1539.0075   0.12710888        14.53 
   14540    1549.0388   0.12766435        14.54 
   14550    1576.3181   0.13005972        14.55 
   14560     1585.322    0.1345945        14.56 
   14570    1556.7838   0.14077018        14.57 
   14580     1501.736     0.147008        14.58 
   14590    1448.1663   0.15140263        14.59 
   14600    1482.8722   0.15259651         14.6 
   14610    1538.7334   0.15216848        14.61 
   14620    1559.6319   0.15240908        14.62 
   14630    1547.0871   0.15338467        14.63 
   14640    1549.3305   0.15419187        14.64 
   14650    1530.3992   0.15491113        14.65 
   14660    1520.6403    0.1555724        14.66 
   14670    1554.6056   0.15670158        14.67 
   14680    1545.7748   0.15978452        14.68 
   14690    1510.2425   0.16494075        14.69 
   14700    1486.4957   0.17070222         14.7 
   14710    1490.2511   0.17541991        14.71 
   14720     1512.084   0.17853034        14.72 
   14730    1512.8282   0.18035337        14.73 
   14740    1500.3326   0.18061554        14.74 
   14750    1544.1313    0.1793097        14.75 
   14760    1529.7229   0.17763824        14.76 
   14770    1517.7911   0.17507944        14.77 
   14780    1511.6119    0.1707647        14.78 
   14790    1564.0653   0.16477006        14.79 
   14800    1554.0918   0.15897404         14.8 
   14810    1494.5557   0.15388016        14.81 
   14820     1501.981   0.14872458        14.82 
   14830    1554.0308   0.14377509        14.83 
   14840    1548.4739   0.13999437        14.84 
   14850    1551.4719   0.13703104        14.85 
   14860    1547.1533   0.13491029        14.86 
   14870    1505.3443   0.13353272        14.87 
   14880     1524.967    0.1322478        14.88 
   14890    1520.3596   0.13207456        14.89 
   14900    1498.5043   0.13289327         14.9 
   14910    1488.8166   0.13373037        14.91 
   14920    1536.1774   0.13415837        14.92 
   14930    1562.2539    0.1351568        14.93 
   14940    1537.2325   0.13709573        14.94 
   14950    1517.3632   0.13903043        14.95 
   14960    1535.7472   0.14015936        14.96 
   14970    1501.9962   0.14075871        14.97 
   14980    1474.9246   0.14051542        14.98 
   14990    1516.8872   0.13942954        14.99 
   15000    1503.9245   0.13892884           15 
Loop time of 6.59872 on 4 procs for 10000 steps with 512 atoms

Performance: 130.934 ns/day, 0.183 hours/ns, 1515.445 timesteps/s
87.9% CPU use with 4 MPI tasks x 1 OpenMP threads

MPI task timing breakdown:
Section |  min time  |  avg time  |  max time  |%varavg| %total
---------------------------------------------------------------
Pair    | 3.4751     | 3.543      | 3.6001     |   2.7 | 53.69
Neigh   | 0.095025   | 0.096765   | 0.10044    |   0.7 |  1.47
Comm    | 0.86453    | 0.8953     | 0.94816    |   3.3 | 13.57
Output  | 1.7878     | 1.8226     | 1.9236     |   4.3 | 27.62
Modify  | 0.091758   | 0.13952    | 0.1919     |  11.5 |  2.11
Other   |            | 0.1015     |            |       |  1.54

Nlocal:    128 ave 131 max 124 min
Histogram: 1 0 1 0 0 0 0 0 0 2
Nghost:    525 ave 529 max 522 min
Histogram: 2 0 0 0 0 0 0 1 0 1
Neighs:    0 ave 0 max 0 min
Histogram: 4 0 0 0 0 0 0 0 0 0
FullNghs:  3427.5 ave 3532 max 3306 min
Histogram: 1 1 0 0 0 0 0 0 0 2

Total # of neighbors = 13710
Ave neighs/atom = 26.7773
Neighbor list builds = 469
Dangerous builds = 0


clear
OMP_NUM_THREADS environment is not set. Defaulting to 1 thread. (src/comm.cpp:93)
  using 1 OpenMP thread(s) per MPI task
next myTemp
jump SELF Tloop
Total wall time: 0:00:08
